<?xml version="1.0"?>
<VTKFile type="UnstructuredGrid"  version="0.1"  >
<UnstructuredGrid>
<Piece  NumberOfPoints="12" NumberOfCells="13">
<Points>
<DataArray  type="Float64"  NumberOfComponents="3"  format="ascii">420335.594385 -1072655.17355 0  421321.820569 -1093251.00452 0  410133.487865 -1113940.67044 0  429076.936985 -1135861.80466 0  444542.389278 -1100224.02329 0  436822.231981 -1118013.95303 0  391421.922708 -1078034.46131 0  373266.826539 -1108965.36589 0  383584.969825 -1123754.70691 0  394065.020231 -1097588.83187 0  411221.82472 -1136872.47127 0  393439.155616 -1137879.03757 0  </DataArray>
</Points>
<Cells>
<DataArray  type="UInt32"  Name="connectivity"  format="ascii">2 8 11  2 3 5  2 10 11  2 3 10  7 8 9  2 8 9  0 1 4  1 4 5  1 2 5  1 2 9  6 7 9  0 1 6  1 6 9  </DataArray>
<DataArray  type="UInt32"  Name="offsets"  format="ascii">3 6 9 12 15 18 21 24 27 30 33 36 39 </DataArray>
<DataArray  type="UInt8"  Name="types"  format="ascii">5 5 5 5 5 5 5 5 5 5 5 5 5 </DataArray>
</Cells>
<PointData  Scalars="f_135"> 
<DataArray  type="Float64"  Name="f_135"  format="ascii">5.8674013609091742e+02  7.9260205823867716e+02  8.6189395812034081e+02  9.6175433848566195e+02  5.8804483988770312e+02  8.2340057714764430e+02  9.1217951079344630e+02  9.7921528913177951e+02  9.9209895717954305e+02  8.9361157048667508e+02  9.3515300557052547e+02  1.0541284038282186e+03  </DataArray> 
</PointData> 
</Piece>
</UnstructuredGrid>
</VTKFile>